# vtk DataFile Version 3.0
vtk output
ASCII
DATASET UNSTRUCTURED_GRID
POINTS 7 float 
0.0000000000 -3.0000000000 0.0000000000
0.0000000000 -4.0000000000 0.0000000000
0.0000000000 -7.5000000000 2.5000000000
0.0000000000 -7.0000000000 3.0000000000
0.0000000000 -3.5000000000 0.5000000000
0.0000000000 -2.5000000000 1.5000000000
0.0000000000 -2.0000000000 1.0000000000
CELLS 4 17
3 0 1 4
3 1 2 3
3 1 3 4
4 0 4 5 6
CELL_TYPES 4
5
5
5
9
POINT_DATA 7
SCALARS pointData float 1
LOOKUP_TABLE default
-1.5000000000
-1.0000000000
-0.5000000000
0.0000000000
0.5000000000
1.0000000000
1.5000000000
CELL_DATA 4
SCALARS cellData int 1
LOOKUP_TABLE default
10
0
30
20
